<?xml version="1.0"?>
<VTKFile type="UnstructuredGrid"  version="0.1"  >
<UnstructuredGrid>
<Piece  NumberOfPoints="465" NumberOfCells="860">
<Points>
<DataArray  type="Float64"  NumberOfComponents="3"  format="ascii">1 -1 0  1 0 0  0 0 0  0 1 0  -1 1 0  -1 -1 0  -1 -0.76153 0  -1 0.76668 0  -1 0.36947 0  -1 -0.55255 0  -1 -0.1746 0  -1 0.55915 0  -1 -0.36117 0  -1 0.008808699999999999 0  -1 0.18688 0  -0.86829 -0.28179 0  -0.85026 0.4621 0  -0.82751 -0.82415 0  -0.86388 0.14451 0  -0.74263 -0.35726 0  -0.75872 -0.20401 0  -0.84818 0.015616 0  -0.8696700000000001 -0.11798 0  -0.83883 0.63862 0  -0.86281 0.29908 0  -0.76366 1 0  -0.73428 0.09231200000000001 0  -0.74012 -0.059552 0  -0.85232 -0.45355 0  -0.6561900000000001 -0.14623 0  -0.74565 0.23534 0  -0.60542 0.43489 0  -0.72683 0.37435 0  -0.8224399999999999 0.82606 0  -0.71 0.52734 0  -0.84019 -0.63006 0  -0.65599 0.016625 0  -0.70933 -0.51632 0  -0.62013 0.30323 0  -0.6066 -0.06517100000000001 0  -0.65203 0.18422 0  -0.681 0.68724 0  -0.76353 -1 0  -0.55787 -0.18324 0  -0.59873 0.09575400000000001 0  -0.5101599999999999 0.37039 0  -0.6903 -0.6856100000000001 0  -0.64676 -0.26266 0  -0.5390200000000001 0.015993 0  -0.55431 0.1973 0  -0.63636 -0.84409 0  -0.55488 1 0  -0.62296 -0.38318 0  -0.5795 -0.48465 0  -0.46389 -0.13077 0  -0.57377 0.57442 0  -0.54121 -0.29518 0  -0.5048899999999999 0.11357 0  -0.51115 0.27977 0  -0.52036 -0.73282 0  -0.45912 0.20093 0  -0.43668 0.60386 0  -0.63114 0.84126 0  -0.52895 -0.088936 0  -0.46458 -0.035372 0  -0.45348 0.047608 0  -0.44595 -0.29976 0  -0.3946 -0.0049555 0  -0.37902 0.066276 0  -0.42171 0.12772 0  -0.48635 0.484 0  -0.51884 0.71091 0  -0.40176 -0.081607 0  -0.5704 -0.60508 0  -0.47023 -0.21475 0  -0.38343 0.20617 0  -0.39466 -0.16194 0  -0.34313 0.33595 0  -0.41319 0.3955 0  -0.31794 0.42438 0  -0.33224 0.01658 0  -0.41978 0.29262 0  -0.37554 0.50129 0  -0.36045 0.71904 0  -0.35142 0.13455 0  -0.45327 0.84532 0  -0.49613 -0.40113 0  -0.38353 -0.2369 0  -0.33996 -0.11627 0  -0.28759 -0.023754 0  -0.26411 0.36236 0  -0.26333 0.50163 0  -0.31232 0.59687 0  -0.38252 -0.46112 0  -0.35003 -0.30935 0  -0.34141 -0.048429 0  -0.31497 0.077347 0  -0.42259 -0.6339900000000001 0  -0.4042 -0.37593 0  -0.32614 -0.18546 0  -0.31158 0.18893 0  -0.2643 0.23237 0  -0.33379 0.26037 0  -0.29429 0.86698 0  -0.35757 -0.74682 0  -0.30363 -0.2516 0  -0.28641 0.1301 0  -0.24743 0.17488 0  -0.2706 -0.32238 0  -0.28117 -0.14148 0  -0.2896 -0.081539 0  -0.27729 0.030835 0  -0.25753 0.07974100000000001 0  -0.2187 0.42271 0  -0.4631 -0.52018 0  -0.26141 -0.20167 0  -0.24406 -0.054274 0  -0.26508 0.2966 0  -0.36872 1 0  -0.31271 -0.39049 0  -0.24051 -0.10559 0  -0.20588 0.27115 0  -0.22781 0.76478 0  -0.22655 -0.15865 0  -0.23959 -0.0054873 0  -0.19617 0.1603 0  -0.20438 0.21613 0  -0.44753 -0.86288 0  -0.20297 -0.033746 0  -0.19671 0.0066559 0  -0.15304 0.29116 0  -0.55146 -1 0  -0.20373 -0.21298 0  -0.18548 0.044243 0  -0.2315 0.12279 0  -0.19294 0.34196 0  -0.22787 0.039781 0  -0.22155 0.65639 0  -0.20784 -0.74869 0  -0.33749 -0.55538 0  -0.20259 -0.07686900000000001 0  -0.15895 0.013598 0  -0.19918 -0.32634 0  -0.23541 -0.26337 0  -0.17378 -0.26713 0  -0.16171 0.19168 0  -0.27744 -0.64836 0  -0.17741 -0.16991 0  -0.16586 -0.019065 0  -0.18371 0.11821 0  -0.11851 0.19292 0  -0.18489 1 0  -0.15083 -0.21689 0  -0.10713 0.73628 0  -0.1541 -0.13285 0  -0.19505 -0.12224 0  -0.16768 -0.054601 0  -0.13263 -0.0052819 0  -0.14988 0.043484 0  -0.16353 0.077487 0  -0.20661 0.08078100000000001 0  -0.15753 0.47532 0  -0.354 -1 0  -0.27639 -0.47324 0  -0.2292 -0.39578 0  -0.13244 -0.17437 0  -0.11725 -0.13752 0  -0.16377 -0.0925 0  -0.1247 0.023649 0  -0.089932 0.22696 0  -0.13921 0.3951 0  -0.08427 0.52773 0  -0.18859 0.55966 0  -0.14835 0.1118 0  -0.14627 0.15122 0  -0.14822 -0.6341599999999999 0  -0.21974 -0.55467 0  -0.18052 -0.46797 0  -0.12527 0.08741699999999999 0  -0.10279 0.15697 0  -0.14623 0.23806 0  -0.12535 0.87459 0  -0.11471 -0.53745 0  -0.09808600000000001 -0.44733 0  -0.15313 -0.38807 0  -0.13408 -0.3195 0  -0.1284 -0.10194 0  -0.13474 -0.068077 0  -0.092762 0.025239 0  -0.12758 0.059938 0  -0.096154 0.069378 0  -0.11526 0.12326 0  -0.1147 0.33407 0  -0.11762 -0.26125 0  -0.10207 -0.21196 0  -0.10422 -0.077228 0  -0.13623 -0.035868 0  -0.10859 -0.022144 0  -0.10445 0.0039808 0  -0.078412 0.008654 0  -0.09520199999999999 0.095716 0  -0.07374600000000001 0.18613 0  -0.16859 -1 0  -0.027796 -0.41519 0  -0.10849 -0.049117 0  -0.085137 -0.036053 0  -0.085024 -0.012577 0  -0.06892 0.09733700000000001 0  -0.09830800000000001 0.27351 0  -0.074293 0.44202 0  -0.091167 -0.17118 0  -0.062849 -0.11489 0  -0.084415 -0.13519 0  -0.074923 -0.08688700000000001 0  -0.065385 -0.025153 0  -0.069428 0.030482 0  -0.10645 0.043697 0  -0.05088 0.11991 0  -0.08198999999999999 0.12602 0  -0.06244 0.15162 0  -0.041118 0.21133 0  -1.1096e-11 0.8301500000000001 0  -0.27235 -0.86695 0  -0.095842 -0.10609 0  -0.058074 -0.06837699999999999 0  -0.08218300000000001 -0.060464 0  -0.049664 0.034355 0  -0.080244 0.04916 0  -0.06887600000000001 0.07307900000000001 0  -0.04622 0.25487 0  -0.061995 0.3714 0  -4.8162e-12 0.40511 0  -0.10255 0.62409 0  -0.076462 -0.30222 0  -0.059003 -0.19539 0  -0.04819 -0.09273099999999999 0  -0.062608 -0.046037 0  -0.046405 -0.033529 0  -0.06382 -0.0058467 0  -0.057772 0.052029 0  -0.036472 0.05142 0  -0.044955 0.091431 0  -0.033532 0.17304 0  -0.053384 0.30841 0  -0.04152 -0.053145 0  -0.047178 -0.016845 0  -0.04758 0.00063286 0  -0.05855 0.014497 0  -0.020581 0.06537 0  -0.043389 0.069954 0  -4.0867e-12 0.33716 0  -5.4205e-12 0.48437 0  -0.035379 -0.07223599999999999 0  -0.029868 -0.040334 0  -0.029921 -0.024285 0  -0.033512 -0.0094497 0  -0.034427 0.0063142 0  -0.04204 0.019309 0  -0.027095 0.02218 0  -0.031573 0.035727 0  -0.024367 0.10962 0  7.0032e-13 0.078151 0  -0.11268 -0.8654500000000001 0  0.018168 -0.70244 0  -0.026955 -0.2805 0  -0.030768 -0.1595 0  -0.057728 -0.1521 0  -0.024984 -0.096633 0  -0.019486 -0.05594 0  -0.015858 -0.036984 0  -0.0013017 -0.031866 0  -0.014186 -0.023448 0  -0.019 -0.012927 0  -0.022104 -0.0015089 0  -0.01113 0.0089339 0  -0.022025 0.010491 0  -0.015012 0.033972 0  -0.017084 0.048463 0  -1.9702e-13 0.061402 0  -0.021952 0.084857 0  -0.028579 0.13954 0  -1.969e-12 0.12454 0  -2.8942e-12 0.23095 0  -6.4031e-12 0.57955 0  0.011601 -1 0  -0.084701 -0.7281300000000001 0  -0.032934 -0.6032 0  -0.08557099999999999 -0.369 0  -0.068244 -0.24509 0  -0.011166 -0.13757 0  -0.036427 -0.12287 0  -0.0061307 -0.11041 0  -0.015731 -0.07556599999999999 0  0.0013186 -0.06541 0  0.011878 -0.036509 0  -0.0032779 -0.047496 0  0.010134 -0.021541 0  -0.0019702 -0.019074 0  -0.0066846 -0.0098339 0  -0.010965 -0.001088 0  -1.2303e-13 0.010869 0  -0.012802 0.021038 0  -1.6443e-13 0.0263 0  -1.5969e-13 0.036108 0  -1.848e-13 0.047407 0  9.315099999999999e-13 0.098994 0  -2.3819e-12 0.15477 0  -8.802299999999999e-12 0.69077 0  -0.027386 -0.34203 0  -0.020561 -0.18924 0  0.016358 -0.12911 0  0.0018237 -0.08748499999999999 0  0.021703 -0.07584100000000001 0  0.013666 -0.053195 0  0.027573 -0.039464 0  0.0053816 -0.0091854 0  0.011672 -1.9089e-13 0  -1.0617e-13 0.0047585 0  -1.3924e-13 0.017714 0  -2.5076e-12 0.19025 0  -3.4115e-12 0.27959 0  -0.029188 -0.50148 0  0.031342 -0.37087 0  0.0084899 -0.16423 0  0.021022 -0.10175 0  0.045988 -0.06804499999999999 0  0.02974 -0.057659 0  -0.026297 -0.22964 0  0.040241 -0.14727 0  0.042841 -0.090198 0  0.065275 -0.054934 0  0.018114 -0.01079 0  0.025556 5.8211e-13 0  0.042083 -0.44519 0  0.022198 -0.30656 0  0.013473 -0.20531 0  0.045623 -0.045816 0  0.040235 -0.02764 0  0.023532 -0.024219 0  0.01624 -0.83727 0  0.016142 -0.25104 0  0.043512 -0.17847 0  0.033264 -0.012623 0  0.042137 6.9807e-13 0  0.053682 -0.53015 0  0.053283 -0.21833 0  0.07197199999999999 -0.14419 0  0.045069 -0.11834 0  0.067507 -0.07985 0  0.059781 -0.032631 0  0.051566 -0.014748 0  0.06768 -0.10725 0  0.09948 -0.38681 0  0.07957 -0.1791 0  0.094143 -0.091019 0  0.08956699999999999 -0.063832 0  0.062956 -0.26787 0  0.09866999999999999 -0.021091 0  0.073211 -0.0174 0  0.061957 8.6079e-13 0  0.09449100000000001 -0.22641 0  0.093815 -0.12193 0  0.08200300000000001 -0.038763 0  0.14418 -0.86468 0  0.079508 -0.32335 0  0.12468 -0.11009 0  0.10863 -0.046335 0  0.085523 1.0177e-12 0  0.085925 -0.61587 0  0.12878 -0.025094 0  0.11322 -2.1038e-12 0  0.12265 -0.45901 0  0.11653 -0.18777 0  0.11447 -0.14923 0  0.17589 -0.27087 0  0.11672 -0.27423 0  0.15445 -0.13317 0  0.11983 -0.076491 0  0.13921 -0.054176 0  0.16518 -0.024749 0  0.14601 -2.9603e-12 0  0.15603 -0.17499 0  0.1551 -0.09073199999999999 0  0.14451 -0.22602 0  0.14364 -0.32824 0  0.19386 -0.21279 0  0.19921 -0.16052 0  0.17098 -0.054624 0  0.1881 -3.0203e-12 0  0.189 -1 0  0.17533 -0.38928 0  0.23415 -3.2973e-12 0  0.21515 -0.45605 0  0.19346 -0.11644 0  0.19532 -0.077942 0  0.12695 -0.73285 0  0.15704 -0.53562 0  0.21347 -0.32117 0  0.24592 -0.1901 0  0.21041 -0.036917 0  0.28586 -0.29994 0  0.24258 -0.13254 0  0.23639 -0.25363 0  0.23507 -0.08257 0  0.26131 -0.043368 0  0.29824 -0.22588 0  0.29685 -0.15742 0  0.29802 -0.86136 0  0.26383 -0.5334100000000001 0  0.2585 -0.37753 0  0.28589 -0.096801 0  0.24863 -0.73925 0  0.19941 -0.6281099999999999 0  0.3595 -0.26671 0  0.28863 -3.9421e-12 0  0.34449 -0.35257 0  0.43169 -0.31342 0  0.37009 -1 0  0.31272 -0.44202 0  0.34663 -0.11496 0  0.32071 -0.62462 0  0.32079 -0.052061 0  0.38756 -0.73087 0  0.3593 -0.18682 0  0.4185 -0.13637 0  0.37684 -0.51723 0  0.41387 -0.41328 0  0.51645 -0.36758 0  0.35235 -4.5342e-12 0  0.46493 -0.8537 0  0.49504 -0.48465 0  0.50374 -0.16095 0  0.43254 -0.22047 0  0.5608300000000001 -1 0  0.47235 -0.074338 0  0.39036 -0.062387 0  0.51874 -0.25905 0  0.51359 -5.8459e-12 0  0.42676 -5.1639e-12 0  0.53871 -0.71202 0  0.6144500000000001 -6.5105e-12 0  0.58816 -0.57186 0  0.61428 -0.43273 0  0.5701000000000001 -0.088213 0  0.72336 -0.51672 0  0.61953 -0.30422 0  0.60492 -0.18935 0  0.45129 -0.60
[...]
<PointData  Scalars="f_45-1"> 
<DataArray  type="Float64"  Name="f_45-1"  format="ascii">0.0000000000000000e+00  0.0000000000000000e+00  0.0000000000000000e+00  0.0000000000000000e+00  0.0000000000000000e+00  0.0000000000000000e+00  0.0000000000000000e+00  0.0000000000000000e+00  0.0000000000000000e+00  0.0000000000000000e+00  0.0000000000000000e+00  0.0000000000000000e+00  0.0000000000000000e+00  0.0000000000000000e+00  0.0000000000000000e+00  0.0000000000000000e+00  0.0000000000000000e+00  0.0000000000000000e+00  0.0000000000000000e+00  0.0000000000000000e+00  0.0000000000000000e+00  0.0000000000000000e+00  0.0000000000000000e+00  2.8700414441268411e-15  0.0000000000000000e+00  0.0000000000000000e+00  0.0000000000000000e+00  0.0000000000000000e+00  0.0000000000000000e+00  0.0000000000000000e+00  0.0000000000000000e+00  0.0000000000000000e+00  0.0000000000000000e+00  0.0000000000000000e+00  0.0000000000000000e+00  0.0000000000000000e+00  0.0000000000000000e+00  0.0000000000000000e+00  0.0000000000000000e+00  0.0000000000000000e+00  0.0000000000000000e+00  0.0000000000000000e+00  0.0000000000000000e+00  0.0000000000000000e+00  0.0000000000000000e+00  0.0000000000000000e+00  0.0000000000000000e+00  0.0000000000000000e+00  0.0000000000000000e+00  0.0000000000000000e+00  0.0000000000000000e+00  0.0000000000000000e+00  0.0000000000000000e+00  0.0000000000000000e+00  0.0000000000000000e+00  0.0000000000000000e+00  0.0000000000000000e+00  0.0000000000000000e+00  0.0000000000000000e+00  0.0000000000000000e+00  0.0000000000000000e+00  0.0000000000000000e+00  0.0000000000000000e+00  0.0000000000000000e+00  0.0000000000000000e+00  0.0000000000000000e+00  0.0000000000000000e+00  0.0000000000000000e+00  0.0000000000000000e+00  0.0000000000000000e+00  0.0000000000000000e+00  0.0000000000000000e+00  0.0000000000000000e+00  0.0000000000000000e+00  0.0000000000000000e+00  0.0000000000000000e+00  0.0000000000000000e+00  0.0000000000000000e+00  0.0000000000000000e+00  0.0000000000000000e+00  0.0000000000000000e+00  0.0000000000000000e+00  0.0000000000000000e+00  0.0000000000000000e+00  0.0000000000000000e+00  0.0000000000000000e+00  0.0000000000000000e+00  0.0000000000000000e+00  0.0000000000000000e+00  0.0000000000000000e+00  0.0000000000000000e+00  0.0000000000000000e+00  0.0000000000000000e+00  0.0000000000000000e+00  0.0000000000000000e+00  0.0000000000000000e+00  0.0000000000000000e+00  0.0000000000000000e+00  0.0000000000000000e+00  0.0000000000000000e+00  0.0000000000000000e+00  0.0000000000000000e+00  0.0000000000000000e+00  0.0000000000000000e+00  0.0000000000000000e+00  0.0000000000000000e+00  0.0000000000000000e+00  0.0000000000000000e+00  0.0000000000000000e+00  0.0000000000000000e+00  0.0000000000000000e+00  0.0000000000000000e+00  0.0000000000000000e+00  0.0000000000000000e+00  0.0000000000000000e+00  0.0000000000000000e+00  0.0000000000000000e+00  0.0000000000000000e+00  0.0000000000000000e+00  0.0000000000000000e+00  0.0000000000000000e+00  0.0000000000000000e+00  0.0000000000000000e+00  0.0000000000000000e+00  0.0000000000000000e+00  0.0000000000000000e+00  0.0000000000000000e+00  0.0000000000000000e+00  0.0000000000000000e+00  0.0000000000000000e+00  0.0000000000000000e+00  0.0000000000000000e+00  0.0000000000000000e+00  0.0000000000000000e+00  0.0000000000000000e+00  0.0000000000000000e+00  0.0000000000000000e+00  0.0000000000000000e+00  0.0000000000000000e+00  0.0000000000000000e+00  0.0000000000000000e+00  0.0000000000000000e+00  0.0000000000000000e+00  0.0000000000000000e+00  0.0000000000000000e+00  0.0000000000000000e+00  0.0000000000000000e+00  0.0000000000000000e+00  0.0000000000000000e+00  0.0000000000000000e+00  0.0000000000000000e+00  0.0000000000000000e+00  0.0000000000000000e+00  0.0000000000000000e+00  0.0000000000000000e+00  0.0000000000000000e+00  0.0000000000000000e+00  0.0000000000000000e+00  0.0000000000000000e+00  0.0000000000000000e+00  0.0000000000000000e+00  0.0000000000000000e+00  0.0000000000000000e+00  0.0000000000000000e+00  0.0000000000000000e+00  0.0000000000000000e+00  0.0000000000000000e+00  0.0000000000000000e+00  0.0000000000000000e+00  0.0000000000000000e+00  0.0000000000000000e+00  0.0000000000000000e+00  0.0000000000000000e+00  0.0000000000000000e+00  0.0000000000000000e+00  0.0000000000000000e+00  0.0000000000000000e+00  0.0000000000000000e+00  0.0000000000000000e+00  0.0000000000000000e+00  0.0000000000000000e+00  0.0000000000000000e+00  0.0000000000000000e+00  0.0000000000000000e+00  0.0000000000000000e+00  0.0000000000000000e+00  0.0000000000000000e+00  0.0000000000000000e+00  0.0000000000000000e+00  0.0000000000000000e+00  0.0000000000000000e+00  0.0000000000000000e+00  0.0000000000000000e+00  0.0000000000000000e+00  0.0000000000000000e+00  0.0000000000000000e+00  0.0000000000000000e+00  0.0000000000000000e+00  0.0000000000000000e+00  0.0000000000000000e+00  0.0000000000000000e+00  0.0000000000000000e+00  0.0000000000000000e+00  0.0000000000000000e+00  0.0000000000000000e+00  0.0000000000000000e+00  0.0000000000000000e+00  0.0000000000000000e+00  0.0000000000000000e+00  0.0000000000000000e+00  0.0000000000000000e+00  0.0000000000000000e+00  0.0000000000000000e+00  0.0000000000000000e+00  0.0000000000000000e+00  0.0000000000000000e+00  0.0000000000000000e+00  0.0000000000000000e+00  0.0000000000000000e+00  0.0000000000000000e+00  0.0000000000000000e+00  0.0000000000000000e+00  0.0000000000000000e+00  0.0000000000000000e+00  0.0000000000000000e+00  0.0000000000000000e+00  0.0000000000000000e+00  0.0000000000000000e+00  0.0000000000000000e+00  0.0000000000000000e+00  0.0000000000000000e+00  0.0000000000000000e+00  0.0000000000000000e+00  0.0000000000000000e+00  0.0000000000000000e+00  0.0000000000000000e+00  0.0000000000000000e+00  0.0000000000000000e+00  0.0000000000000000e+00  0.0000000000000000e+00  0.0000000000000000e+00  0.0000000000000000e+00  0.0000000000000000e+00  0.0000000000000000e+00  0.0000000000000000e+00  0.0000000000000000e+00  0.0000000000000000e+00  0.0000000000000000e+00  0.0000000000000000e+00  0.0000000000000000e+00  0.0000000000000000e+00  0.0000000000000000e+00  0.0000000000000000e+00  0.0000000000000000e+00  0.0000000000000000e+00  0.0000000000000000e+00  0.0000000000000000e+00  0.0000000000000000e+00  0.0000000000000000e+00  0.0000000000000000e+00  0.0000000000000000e+00  0.0000000000000000e+00  0.0000000000000000e+00  0.0000000000000000e+00  0.0000000000000000e+00  0.0000000000000000e+00  0.0000000000000000e+00  0.0000000000000000e+00  0.0000000000000000e+00  0.0000000000000000e+00  0.0000000000000000e+00  0.0000000000000000e+00  0.0000000000000000e+00  0.0000000000000000e+00  0.0000000000000000e+00  0.0000000000000000e+00  0.0000000000000000e+00  0.0000000000000000e+00  0.0000000000000000e+00  0.0000000000000000e+00  0.0000000000000000e+00  0.0000000000000000e+00  0.0000000000000000e+00  0.0000000000000000e+00  0.0000000000000000e+00  0.0000000000000000e+00  0.0000000000000000e+00  0.0000000000000000e+00  0.0000000000000000e+00  0.0000000000000000e+00  0.0000000000000000e+00  0.0000000000000000e+00  0.0000000000000000e+00  0.0000000000000000e+00  0.0000000000000000e+00  0.0000000000000000e+00  0.0000000000000000e+00  0.0000000000000000e+00  0.0000000000000000e+00  0.0000000000000000e+00  0.0000000000000000e+00  0.0000000000000000e+00  0.0000000000000000e+00  0.0000000000000000e+00  0.0000000000000000e+00  0.0000000000000000e+00  0.0000000000000000e+00  0.0000000000000000e+00  0.0000000000000000e+00  0.0000000000000000e+00  0.0000000000000000e+00  0.0000000000000000e+00  0.0000000000000000e+00  0.0000000000000000e+00  0.0000000000000000e+00  0.0000000000000000e+00  0.0000000000000000e+00  0.0000000000000000e+00  0.0000000000000000e+00  0.0000000000000000e+00  0.0000000000000000e+00  0.0000000000000000e+00  0.0000000000000000e+00  0.0000000000000000e+00  0.0000000000000000e+00  0.0000000000000000e+00  0.0000000000000000e+00  0.0000000000000000e+00  0.0000000000000000e+00  0.0000000000000000e+00  0.0000000000000000e+00  0.0000000000000000e+00  0.0000000000000000e+00  0.0000000000000000e+00  0.0000000000000000e+00  0.0000000000000000e+00  0.0000000000000000e+00  0.0000000000000000e+00  0.0000000000000000e+00  0.0000000000000000e+00  0.0000000000000000e+00  0.0000000000000000e+00  0.0000000000000000e+00  0.0000000000000000e+00  0.0000000000000000e+00  0.0000000000000000e+00  0.0000000000000000e+00  0.0000000000000000e+00  0.0000000000000000e+00  0.0000000000000000e+00  0.0000000000000000e+00  0.0000000000000000e+00  0.0000000000000000e+00  0.0000000000000000e+00  0.0000000000000000e+00  0.0000000000000000e+00  0.0000000000000000e+00  0.0000000000000000e+00  0.0000000000000000e+00  0.0000000000000000e+00  0.0000000000000000e+00  0.0000000000000000e+00  0.0000000000000000e+00  0.0000000000000000e+00  0.0000000000000000e+00  0.0000000000000000e+00  0.0000000000000000e+00  0.0000000000000000e+00  0.0000000000000000e+00  0.0000000000000000e+00  0.0000000000000000e+00  0.0000000000000000e+00  0.0000000000000000e+00  0.0000000000000000e+00  0.0000000000000000e+00  0.0000000000000000e+00  0.0000000000000000e+00  0.0000000000000000e+00  0.0000000000000000e+00  0.0000000000000000e+00  0.0000000000000000e+00  0.0000000000000000e+00  0.0000000000000000e+00  0.0000000000000000e+00  0.0000000000000000e+00  0.0000000000000000e+00  0.0000000000000000e+00  0.0000000000000000e+00  0.0000000000000000e+00  0.0000000000000000e+00  0.0000000000000000e+00  0.0000000000000000e+00  0.0000000000000000e+00  0.0000000000000000e+00  0.0000000000000000e+00  0.0000000000000000e+00  0.0000000000000000e+00  0.0000000000000000e+00  0.0000000000000000e+00  0.0000000000000000e+00  1.5288960459440988e-15  0.0000000000000000e+00  0.0000000000000000e+00  0.0000000000000000e+00  0.0000000000000000e+00  0.0000000000000000e+00  0.0000000000000000e+00  0.0000000000000000e+00  0.0000000000000000e+00  0.0000000000000000e+00  0.0000000000000000e+00  0.0000000000000000e+00  0.0000000000000000e+00  0.0000000000000000e+00  0.0000000000000000e+00  0.0000000000000000e+00  0.0000000000000000e+00  0.0000000000000000e+00  0.0000000000000000e+00  0.0000000000000000e+00  0.0000000000000000e+00  0.0000000000000000e+00  0.0000000000000000e+00  0.0000000000000000e+00  0.0000000000000000e+00  0.0000000000000000e+00  0.0000000000000000e+00  0.0000000000000000e+00  0.0000000000000000e+00  0.0000000000000000e+00  0.0000000000000000e+00  0.0000000000000000e+00  0.0000000000000000e+00  0.0000000000000000e+00  0.0000000000000000e+00  0.0000000000000000e+00  0.0000000000000000e+00  0.0000000000000000e+00  0.0000000000000000e+00  0.0000000000000000e+00  0.0000000000000000e+00  0.0000000000000000e+00  0.0000000000000000e+00  0.0000000000000000e+00  0.0000000000000000e+00  0.0000000000000000e+00  0.0000000000000000e+00  0.0000000000000000e+00  0.0000000000000000e+00  0.0000000000000000e+00  0.0000000000000000e+00  0.0000000000000000e+00  0.0000000000000000e+00  0.0000000000000000e+00  0.0000000000000000e+00  0.0000000000000000e+00  0.0000000000000000e+00  0.0000000000000000e+00  0.0000000000000000e+00  0.0000000000000000e+00  0.0000000000000000e+00  4.9417197615025241e-17  1.7522146639225450e-16  0.0000000000000000e+00  0.0000000000000000e+00  </DataArray> 
</PointData> 
</Piece>
</UnstructuredGrid>
</VTKFile>