<?xml version="1.0"?>
<VTKFile type="UnstructuredGrid"  version="0.1"  >
<UnstructuredGrid>
<Piece  NumberOfPoints="41" NumberOfCells="61">
<Points>
<DataArray  type="Float64"  NumberOfComponents="3"  format="ascii">1 -1 0  1 0 0  0 0 0  0 1 0  -1 1 0  -1 -1 0  -1 0.44281 0  -0.43255 -0.4836 0  -1 -0.43264 0  -1 0.0063712 0  -0.51517 -0.13218 0  -0.50119 0.19086 0  -0.3841 0.5083800000000001 0  -0.29578 -1 0  -0.18995 0.2571 0  -0.43426 1 0  -0.26081 -0.15573 0  -0.1288 -0.29405 0  -0.27116 0.05332 0  -0.098277 -0.11324 0  -0.14208 -0.013505 0  -0.043311 -0.55959 0  -0.1096 0.10934 0  -7.963000000000001e-12 0.21903 0  -0.049675 -0.019688 0  -3.7654e-13 0.02907 0  0.0042999 -0.15268 0  -0.015547 -0.058211 0  -0.055937 0.0367 0  0.090976 -0.28299 0  0.12102 -0.10648 0  0.037354 -0.047751 0  3.9694e-12 0.094455 0  -9.94e-12 0.47787 0  0.076417 4.3236e-12 0  0.30285 -0.19171 0  0.20984 -8.8557e-12 0  0.29964 -0.50048 0  0.29907 -1 0  0.67836 -0.39948 0  0.47997 4.0758e-11 0  </DataArray>
</Points>
<Cells>
<DataArray  type="UInt32"  Name="connectivity"  format="ascii">4 12 15  5 7 13  4 6 12  3 12 15  7 13 21  13 21 38  21 37 38  5 7 8  8 9 10  7 8 10  1 39 40  0 1 39  0 38 39  37 38 39  3 12 33  35 37 39  35 39 40  7 17 21  6 11 12  6 9 11  9 10 11  12 14 33  11 12 14  14 23 33  29 35 37  21 29 37  17 26 29  17 21 29  26 30 31  26 29 30  29 30 35  2 27 31  26 27 31  7 10 16  7 16 17  14 22 23  35 36 40  30 35 36  10 11 18  10 16 18  11 14 18  14 18 22  19 26 27  17 19 26  16 17 19  30 31 34  30 34 36  2 31 34  19 24 27  2 24 28  2 24 27  16 18 20  16 19 20  19 20 24  20 24 28  20 22 28  18 20 22  2 25 28  25 28 32  22 28 32  22 23 32  </DataArray>
<DataArray  type="UInt32"  Name="offsets"  format="ascii">3 6 9 12 15 18 21 24 27 30 33 36 39 42 45 48 51 54 57 60 63 66 69 72 75 78 81 84 87 90 93 96 99 102 105 108 111 114 117 120 123 126 129 132 135 138 141 144 147 150 153 156 159 162 165 168 171 174 177 180 183 </DataArray>
<DataArray  type="UInt8"  Name="types"  format="ascii">5 5 5 5 5 5 5 5 5 5 5 5 5 5 5 5 5 5 5 5 5 5 5 5 5 5 5 5 5 5 5 5 5 5 5 5 5 5 5 5 5 5 5 5 5 5 5 5 5 5 5 5 5 5 5 5 5 5 5 5 5 </DataArray>
</Cells>
<PointData  Scalars="f_75"> 
<DataArray  type="Float64"  Name="f_75"  format="ascii">1.1521337476444606e+00  1.2308647493597322e+00  3.0375202236253540e+00  5.5228521274629505e-01  8.2285907988570073e-01  8.8700008720326395e-01  1.1874584305602600e+00  8.4035069359852077e-01  1.0210443173166825e+00  1.0643078411310787e+00  9.6933902039458775e-01  1.0716797558771054e+00  8.7603037005598594e-01  7.1215419490329812e-01  1.2177250393308769e+00  5.1113842503060136e-01  1.5141167094708188e+00  1.4919863776807822e+00  1.6175282637880057e+00  2.0643896121124476e+00  2.2303726337629968e+00  1.0520200751604905e+00  2.0014335955339884e+00  1.4470373228363378e+00  2.7775385517788624e+00  3.4564523604831789e+00  1.9635277744365216e+00  2.5038930560316457e+00  2.8186326164801505e+00  1.6705139321207245e+00  1.9979152421479258e+00  2.3722508844410313e+00  2.4556154243905719e+00  6.8584474780204285e-01  2.1116625376286464e+00  1.8145246643867989e+00  1.6693701420700247e+00  1.3097496996037272e+00  9.9552901704007934e-01  1.3509403872079830e+00  1.5778807235558263e+00  </DataArray> 
</PointData> 
</Piece>
</UnstructuredGrid>
</VTKFile>