<?xml version="1.0"?>
<VTKFile type="UnstructuredGrid"  version="0.1"  >
<UnstructuredGrid>
<Piece  NumberOfPoints="465" NumberOfCells="860">
<Points>
<DataArray  type="Float64"  NumberOfComponents="3"  format="ascii">1 -1 0  1 0 0  0 0 0  0 1 0  -1 1 0  -1 -1 0  -1 -0.76153 0  -1 0.76668 0  -1 0.36947 0  -1 -0.55255 0  -1 -0.1746 0  -1 0.55915 0  -1 -0.36117 0  -1 0.008808699999999999 0  -1 0.18688 0  -0.86829 -0.28179 0  -0.85026 0.4621 0  -0.82751 -0.82415 0  -0.86388 0.14451 0  -0.74263 -0.35726 0  -0.75872 -0.20401 0  -0.84818 0.015616 0  -0.8696700000000001 -0.11798 0  -0.83883 0.63862 0  -0.86281 0.29908 0  -0.76366 1 0  -0.73428 0.09231200000000001 0  -0.74012 -0.059552 0  -0.85232 -0.45355 0  -0.6561900000000001 -0.14623 0  -0.74565 0.23534 0  -0.60542 0.43489 0  -0.72683 0.37435 0  -0.8224399999999999 0.82606 0  -0.71 0.52734 0  -0.84019 -0.63006 0  -0.65599 0.016625 0  -0.70933 -0.51632 0  -0.62013 0.30323 0  -0.6066 -0.06517100000000001 0  -0.65203 0.18422 0  -0.681 0.68724 0  -0.76353 -1 0  -0.55787 -0.18324 0  -0.59873 0.09575400000000001 0  -0.5101599999999999 0.37039 0  -0.6903 -0.6856100000000001 0  -0.64676 -0.26266 0  -0.5390200000000001 0.015993 0  -0.55431 0.1973 0  -0.63636 -0.84409 0  -0.55488 1 0  -0.62296 -0.38318 0  -0.5795 -0.48465 0  -0.46389 -0.13077 0  -0.57377 0.57442 0  -0.54121 -0.29518 0  -0.5048899999999999 0.11357 0  -0.51115 0.27977 0  -0.52036 -0.73282 0  -0.45912 0.20093 0  -0.43668 0.60386 0  -0.63114 0.84126 0  -0.52895 -0.088936 0  -0.46458 -0.035372 0  -0.45348 0.047608 0  -0.44595 -0.29976 0  -0.3946 -0.0049555 0  -0.37902 0.066276 0  -0.42171 0.12772 0  -0.48635 0.484 0  -0.51884 0.71091 0  -0.40176 -0.081607 0  -0.5704 -0.60508 0  -0.47023 -0.21475 0  -0.38343 0.20617 0  -0.39466 -0.16194 0  -0.34313 0.33595 0  -0.41319 0.3955 0  -0.31794 0.42438 0  -0.33224 0.01658 0  -0.41978 0.29262 0  -0.37554 0.50129 0  -0.36045 0.71904 0  -0.35142 0.13455 0  -0.45327 0.84532 0  -0.49613 -0.40113 0  -0.38353 -0.2369 0  -0.33996 -0.11627 0  -0.28759 -0.023754 0  -0.26411 0.36236 0  -0.26333 0.50163 0  -0.31232 0.59687 0  -0.38252 -0.46112 0  -0.35003 -0.30935 0  -0.34141 -0.048429 0  -0.31497 0.077347 0  -0.42259 -0.6339900000000001 0  -0.4042 -0.37593 0  -0.32614 -0.18546 0  -0.31158 0.18893 0  -0.2643 0.23237 0  -0.33379 0.26037 0  -0.29429 0.86698 0  -0.35757 -0.74682 0  -0.30363 -0.2516 0  -0.28641 0.1301 0  -0.24743 0.17488 0  -0.2706 -0.32238 0  -0.28117 -0.14148 0  -0.2896 -0.081539 0  -0.27729 0.030835 0  -0.25753 0.07974100000000001 0  -0.2187 0.42271 0  -0.4631 -0.52018 0  -0.26141 -0.20167 0  -0.24406 -0.054274 0  -0.26508 0.2966 0  -0.36872 1 0  -0.31271 -0.39049 0  -0.24051 -0.10559 0  -0.20588 0.27115 0  -0.22781 0.76478 0  -0.22655 -0.15865 0  -0.23959 -0.0054873 0  -0.19617 0.1603 0  -0.20438 0.21613 0  -0.44753 -0.86288 0  -0.20297 -0.033746 0  -0.19671 0.0066559 0  -0.15304 0.29116 0  -0.55146 -1 0  -0.20373 -0.21298 0  -0.18548 0.044243 0  -0.2315 0.12279 0  -0.19294 0.34196 0  -0.22787 0.039781 0  -0.22155 0.65639 0  -0.20784 -0.74869 0  -0.33749 -0.55538 0  -0.20259 -0.07686900000000001 0  -0.15895 0.013598 0  -0.19918 -0.32634 0  -0.23541 -0.26337 0  -0.17378 -0.26713 0  -0.16171 0.19168 0  -0.27744 -0.64836 0  -0.17741 -0.16991 0  -0.16586 -0.019065 0  -0.18371 0.11821 0  -0.11851 0.19292 0  -0.18489 1 0  -0.15083 -0.21689 0  -0.10713 0.73628 0  -0.1541 -0.13285 0  -0.19505 -0.12224 0  -0.16768 -0.054601 0  -0.13263 -0.0052819 0  -0.14988 0.043484 0  -0.16353 0.077487 0  -0.20661 0.08078100000000001 0  -0.15753 0.47532 0  -0.354 -1 0  -0.27639 -0.47324 0  -0.2292 -0.39578 0  -0.13244 -0.17437 0  -0.11725 -0.13752 0  -0.16377 -0.0925 0  -0.1247 0.023649 0  -0.089932 0.22696 0  -0.13921 0.3951 0  -0.08427 0.52773 0  -0.18859 0.55966 0  -0.14835 0.1118 0  -0.14627 0.15122 0  -0.14822 -0.6341599999999999 0  -0.21974 -0.55467 0  -0.18052 -0.46797 0  -0.12527 0.08741699999999999 0  -0.10279 0.15697 0  -0.14623 0.23806 0  -0.12535 0.87459 0  -0.11471 -0.53745 0  -0.09808600000000001 -0.44733 0  -0.15313 -0.38807 0  -0.13408 -0.3195 0  -0.1284 -0.10194 0  -0.13474 -0.068077 0  -0.092762 0.025239 0  -0.12758 0.059938 0  -0.096154 0.069378 0  -0.11526 0.12326 0  -0.1147 0.33407 0  -0.11762 -0.26125 0  -0.10207 -0.21196 0  -0.10422 -0.077228 0  -0.13623 -0.035868 0  -0.10859 -0.022144 0  -0.10445 0.0039808 0  -0.078412 0.008654 0  -0.09520199999999999 0.095716 0  -0.07374600000000001 0.18613 0  -0.16859 -1 0  -0.027796 -0.41519 0  -0.10849 -0.049117 0  -0.085137 -0.036053 0  -0.085024 -0.012577 0  -0.06892 0.09733700000000001 0  -0.09830800000000001 0.27351 0  -0.074293 0.44202 0  -0.091167 -0.17118 0  -0.062849 -0.11489 0  -0.084415 -0.13519 0  -0.074923 -0.08688700000000001 0  -0.065385 -0.025153 0  -0.069428 0.030482 0  -0.10645 0.043697 0  -0.05088 0.11991 0  -0.08198999999999999 0.12602 0  -0.06244 0.15162 0  -0.041118 0.21133 0  -1.1096e-11 0.8301500000000001 0  -0.27235 -0.86695 0  -0.095842 -0.10609 0  -0.058074 -0.06837699999999999 0  -0.08218300000000001 -0.060464 0  -0.049664 0.034355 0  -0.080244 0.04916 0  -0.06887600000000001 0.07307900000000001 0  -0.04622 0.25487 0  -0.061995 0.3714 0  -4.8162e-12 0.40511 0  -0.10255 0.62409 0  -0.076462 -0.30222 0  -0.059003 -0.19539 0  -0.04819 -0.09273099999999999 0  -0.062608 -0.046037 0  -0.046405 -0.033529 0  -0.06382 -0.0058467 0  -0.057772 0.052029 0  -0.036472 0.05142 0  -0.044955 0.091431 0  -0.033532 0.17304 0  -0.053384 0.30841 0  -0.04152 -0.053145 0  -0.047178 -0.016845 0  -0.04758 0.00063286 0  -0.05855 0.014497 0  -0.020581 0.06537 0  -0.043389 0.069954 0  -4.0867e-12 0.33716 0  -5.4205e-12 0.48437 0  -0.035379 -0.07223599999999999 0  -0.029868 -0.040334 0  -0.029921 -0.024285 0  -0.033512 -0.0094497 0  -0.034427 0.0063142 0  -0.04204 0.019309 0  -0.027095 0.02218 0  -0.031573 0.035727 0  -0.024367 0.10962 0  7.0032e-13 0.078151 0  -0.11268 -0.8654500000000001 0  0.018168 -0.70244 0  -0.026955 -0.2805 0  -0.030768 -0.1595 0  -0.057728 -0.1521 0  -0.024984 -0.096633 0  -0.019486 -0.05594 0  -0.015858 -0.036984 0  -0.0013017 -0.031866 0  -0.014186 -0.023448 0  -0.019 -0.012927 0  -0.022104 -0.0015089 0  -0.01113 0.0089339 0  -0.022025 0.010491 0  -0.015012 0.033972 0  -0.017084 0.048463 0  -1.9702e-13 0.061402 0  -0.021952 0.084857 0  -0.028579 0.13954 0  -1.969e-12 0.12454 0  -2.8942e-12 0.23095 0  -6.4031e-12 0.57955 0  0.011601 -1 0  -0.084701 -0.7281300000000001 0  -0.032934 -0.6032 0  -0.08557099999999999 -0.369 0  -0.068244 -0.24509 0  -0.011166 -0.13757 0  -0.036427 -0.12287 0  -0.0061307 -0.11041 0  -0.015731 -0.07556599999999999 0  0.0013186 -0.06541 0  0.011878 -0.036509 0  -0.0032779 -0.047496 0  0.010134 -0.021541 0  -0.0019702 -0.019074 0  -0.0066846 -0.0098339 0  -0.010965 -0.001088 0  -1.2303e-13 0.010869 0  -0.012802 0.021038 0  -1.6443e-13 0.0263 0  -1.5969e-13 0.036108 0  -1.848e-13 0.047407 0  9.315099999999999e-13 0.098994 0  -2.3819e-12 0.15477 0  -8.802299999999999e-12 0.69077 0  -0.027386 -0.34203 0  -0.020561 -0.18924 0  0.016358 -0.12911 0  0.0018237 -0.08748499999999999 0  0.021703 -0.07584100000000001 0  0.013666 -0.053195 0  0.027573 -0.039464 0  0.0053816 -0.0091854 0  0.011672 -1.9089e-13 0  -1.0617e-13 0.0047585 0  -1.3924e-13 0.017714 0  -2.5076e-12 0.19025 0  -3.4115e-12 0.27959 0  -0.029188 -0.50148 0  0.031342 -0.37087 0  0.0084899 -0.16423 0  0.021022 -0.10175 0  0.045988 -0.06804499999999999 0  0.02974 -0.057659 0  -0.026297 -0.22964 0  0.040241 -0.14727 0  0.042841 -0.090198 0  0.065275 -0.054934 0  0.018114 -0.01079 0  0.025556 5.8211e-13 0  0.042083 -0.44519 0  0.022198 -0.30656 0  0.013473 -0.20531 0  0.045623 -0.045816 0  0.040235 -0.02764 0  0.023532 -0.024219 0  0.01624 -0.83727 0  0.016142 -0.25104 0  0.043512 -0.17847 0  0.033264 -0.012623 0  0.042137 6.9807e-13 0  0.053682 -0.53015 0  0.053283 -0.21833 0  0.07197199999999999 -0.14419 0  0.045069 -0.11834 0  0.067507 -0.07985 0  0.059781 -0.032631 0  0.051566 -0.014748 0  0.06768 -0.10725 0  0.09948 -0.38681 0  0.07957 -0.1791 0  0.094143 -0.091019 0  0.08956699999999999 -0.063832 0  0.062956 -0.26787 0  0.09866999999999999 -0.021091 0  0.073211 -0.0174 0  0.061957 8.6079e-13 0  0.09449100000000001 -0.22641 0  0.093815 -0.12193 0  0.08200300000000001 -0.038763 0  0.14418 -0.86468 0  0.079508 -0.32335 0  0.12468 -0.11009 0  0.10863 -0.046335 0  0.085523 1.0177e-12 0  0.085925 -0.61587 0  0.12878 -0.025094 0  0.11322 -2.1038e-12 0  0.12265 -0.45901 0  0.11653 -0.18777 0  0.11447 -0.14923 0  0.17589 -0.27087 0  0.11672 -0.27423 0  0.15445 -0.13317 0  0.11983 -0.076491 0  0.13921 -0.054176 0  0.16518 -0.024749 0  0.14601 -2.9603e-12 0  0.15603 -0.17499 0  0.1551 -0.09073199999999999 0  0.14451 -0.22602 0  0.14364 -0.32824 0  0.19386 -0.21279 0  0.19921 -0.16052 0  0.17098 -0.054624 0  0.1881 -3.0203e-12 0  0.189 -1 0  0.17533 -0.38928 0  0.23415 -3.2973e-12 0  0.21515 -0.45605 0  0.19346 -0.11644 0  0.19532 -0.077942 0  0.12695 -0.73285 0  0.15704 -0.53562 0  0.21347 -0.32117 0  0.24592 -0.1901 0  0.21041 -0.036917 0  0.28586 -0.29994 0  0.24258 -0.13254 0  0.23639 -0.25363 0  0.23507 -0.08257 0  0.26131 -0.043368 0  0.29824 -0.22588 0  0.29685 -0.15742 0  0.29802 -0.86136 0  0.26383 -0.5334100000000001 0  0.2585 -0.37753 0  0.28589 -0.096801 0  0.24863 -0.73925 0  0.19941 -0.6281099999999999 0  0.3595 -0.26671 0  0.28863 -3.9421e-12 0  0.34449 -0.35257 0  0.43169 -0.31342 0  0.37009 -1 0  0.31272 -0.44202 0  0.34663 -0.11496 0  0.32071 -0.62462 0  0.32079 -0.052061 0  0.38756 -0.73087 0  0.3593 -0.18682 0  0.4185 -0.13637 0  0.37684 -0.51723 0  0.41387 -0.41328 0  0.51645 -0.36758 0  0.35235 -4.5342e-12 0  0.46493 -0.8537 0  0.49504 -0.48465 0  0.50374 -0.16095 0  0.43254 -0.22047 0  0.5608300000000001 -1 0  0.47235 -0.074338 0  0.39036 -0.062387 0  0.51874 -0.25905 0  0.51359 -5.8459e-12 0  0.42676 -5.1639e-12 0  0.53871 -0.71202 0  0.6144500000000001 -6.5105e-12 0  0.58816 -0.57186 0  0.61428 -0.43273 0  0.5701000000000001 -0.088213 0  0.72336 -0.51672 0  0.61953 -0.30422 0  0.60492 -0.18935 0  0.45129 -0.60
[...]
<PointData  Scalars="f_29-0"> 
<DataArray  type="Float64"  Name="f_29-0"  format="ascii">0.0000000000000000e+00  0.0000000000000000e+00  1.4220714359310573e+00  2.8471510609757749e+00  3.0873292815389259e+00  1.6945098144951445e+00  1.7185374908296340e+00  3.0251428930912359e+00  2.7880586311902262e+00  1.7959977963003118e+00  2.1366940114663073e+00  2.9196508677451489e+00  1.9339086250448321e+00  2.3815604732873887e+00  2.6080330989533236e+00  1.9125125654335822e+00  2.7925335984924122e+00  1.5935708403781401e+00  2.4687687614644469e+00  1.7325413565769598e+00  1.9003133222932900e+00  2.2775343647913959e+00  2.1086032973327460e+00  2.9010097062567999e+00  2.6522575255595702e+00  2.9872420135471041e+00  2.3015861365179004e+00  2.0738909692512211e+00  1.7538741287480550e+00  1.8721264443240819e+00  2.5125656643083367e+00  2.6721775489414608e+00  2.6628779455266507e+00  2.9751982788402955e+00  2.7870737215881043e+00  1.6536160898289389e+00  2.1162791304562325e+00  1.6008487280194441e+00  2.5317602158744332e+00  1.9375183494162289e+00  2.3813557094307116e+00  2.8735855844325604e+00  1.5356084867559836e+00  1.7198053464363903e+00  2.2008364269710095e+00  2.5645824610173329e+00  1.5236872938789627e+00  1.7259092819284498e+00  2.0088975954964430e+00  2.3404015917403171e+00  1.4514592698785289e+00  2.9232364699007722e+00  1.5990806731367642e+00  1.4978598600709727e+00  1.6901442866172551e+00  2.7762442108688603e+00  1.5833101963220746e+00  2.1604858731377630e+00  2.4437619026985491e+00  1.3715276822542972e+00  2.2888943626522535e+00  2.7595870494502628e+00  2.9193222882082823e+00  1.8223920453828104e+00  1.8469035391630981e+00  1.9935314689794978e+00  1.4777029775735839e+00  1.8374623972733279e+00  1.9709916461583974e+00  2.1282566700933088e+00  2.6773350649464680e+00  2.8407729176221368e+00  1.7030508154048380e+00  1.4454023871543251e+00  1.5883054594029977e+00  2.2566745146142555e+00  1.5721937113989486e+00  2.4551637763840533e+00  2.5596832247440777e+00  2.5654069326256570e+00  1.8257109294794500e+00  2.4212125854700433e+00  2.6624037543677650e+00  2.8102923061177636e+00  2.0963605901665900e+00  2.8761538868603203e+00  1.4574647037544981e+00  1.4706564185932438e+00  1.5813560985031334e+00  1.6982043484241334e+00  2.4686491420655767e+00  2.6374319462055920e+00  2.7279178356862475e+00  1.3122637153350496e+00  1.3690455914537720e+00  1.7015470560338568e+00  1.9469433813221799e+00  1.2987840523382299e+00  1.3787045087375780e+00  1.4684780439000671e+00  2.1860394723960934e+00  2.2503639295781257e+00  2.3303055158523871e+00  2.8521214278827469e+00  1.2175494948515597e+00  1.3717445169381601e+00  2.0472852379345747e+00  2.1256819469629722e+00  1.2785110527078971e+00  1.4804285257002530e+00  1.5869839616819055e+00  1.8107933636039555e+00  1.9122518928613410e+00  2.5402995966891746e+00  1.3693687349883796e+00  1.3808122986354101e+00  1.5913011852539674e+00  2.3663911442886367e+00  2.8815508204444829e+00  1.2768057530286347e+00  1.4929912506312248e+00  2.3035835708641517e+00  2.8084208996819346e+00  1.3980016926291590e+00  1.6928729501670881e+00  2.0708853340458249e+00  2.1958565759425470e+00  1.2905570913162283e+00  1.5921292622611396e+00  1.6825938760060053e+00  2.3262727607145433e+00  1.3743149840503353e+00  1.3084438811094163e+00  1.7716469582986873e+00  1.9996944166468413e+00  2.4212842362212190e+00  1.7924300360852741e+00  2.7524363333617732e+00  1.0712641608381306e+00  1.2343487263294410e+00  1.5027827853451665e+00  1.6669492211190757e+00  1.2057423355450769e+00  1.2911237450771131e+00  1.2264982946519107e+00  2.1289887025183529e+00  1.1544093531609163e+00  1.3309935368727015e+00  1.5880389170071769e+00  1.9641037445335434e+00  2.1199661670819445e+00  2.8552558787626885e+00  1.2501668579612779e+00  2.7852967673714253e+00  1.3556325164303620e+00  1.4166977315580285e+00  1.5084950904366408e+00  1.5894080333420866e+00  1.7437159994062041e+00  1.8474440816619544e+00  1.8816748248460640e+00  2.5921628648210819e+00  1.1985361866186859e+00  1.2020055844330295e+00  1.1921701309584249e+00  1.2775846998790605e+00  1.3078721068839700e+00  1.4308891752576527e+00  1.6662937290551103e+00  2.1888622316808690e+00  2.4895657319671209e+00  2.6390309293332939e+00  2.6780907398790137e+00  1.9314117368104957e+00  2.0301725536870103e+00  1.0336463097598405e+00  1.1203744897628041e+00  1.1129846736146731e+00  1.8551689204325086e+00  2.0313140610265501e+00  2.2235178490327465e+00  2.8347634906039385e+00  1.0282543866601366e+00  1.0466039721933795e+00  1.1247647213012968e+00  1.1484570447865277e+00  1.3739935416747469e+00  1.4426893985325007e+00  1.6453529826818787e+00  1.7770918418818900e+00  1.7890887010699228e+00  1.9489141155014160e+00  2.3938069183275146e+00  1.1763725960706461e+00  1.2052086424936570e+00  1.3880319577709432e+00  1.5145154728662062e+00  1.5166684636318004e+00  1.5876198442090761e+00  1.5764867123611612e+00  1.8665839026237636e+00  2.0954237131810274e+00  1.0176067859956759e+00  9.9895953227709744e-01  1.4505351459670159e+00  1.4511012740697904e+00  1.5151859365208602e+00  1.8632525267307030e+00  2.2838550171986429e+00  2.5443544881321141e+00  1.2368885862788417e+00  1.2755476618961252e+00  1.2736777409041014e+00  1.3338573164076926e+00  1.4525436604846618e+00  1.6464551776583827e+00  1.7146384603241336e+00  1.9236665528573798e+00  1.9466655055822994e+00  2.0095932984533058e+00  2.1488889189568998e+00  2.8193236980361354e+00  1.1237558965224133e+00  1.3287489268862342e+00  1.3443737328935632e+00  1.3923121534603824e+00  1.6489784278258812e+00  1.7171007620056924e+00  1.7897783380903205e+00  2.2413540897228645e+00  2.4468773211899006e+00  2.4934269742864852e+00  2.7197368123753538e+00  1.1061628999726585e+00  1.1766592383108840e+00  1.2899049973181973e+00  1.3963889959182332e+00  1.4020200233329729e+00  1.5099715450981910e+00  1.7164999432346788e+00  1.7070919277019223e+00  1.8403209573393919e+00  2.0593726374532029e+00  2.3429283357449875e+00  1.3503365416526178e+00  1.4500821901366912e+00  1.5128503549946715e+00  1.5787224723361595e+00  1.7528612388368630e+00  1.7723695917249307e+00  2.3902144822647990e+00  2.5914374414916308e+00  1.3060192646894038e+00  1.3595810234571168e+00  1.3992165188042629e+00  1.4531500879555270e+00  1.5206271927284876e+00  1.5843255808368097e+00  1.5872893375800747e+00  1.6463005603856442e+00  1.8911733846649326e+00  1.7940860556460889e+00  9.6760362884485440e-01  8.6913658793655979e-01  1.0746320947528276e+00  1.1831159855418134e+00  1.2217848113159331e+00  1.2538366806693308e+00  1.3114074027497629e+00  1.3432127579626507e+00  1.3275653424922091e+00  1.3724674396747516e+00  1.4139019885254480e+00  1.4665588389492135e+00  1.5100727652368782e+00  1.5282613296789427e+00  1.6344684929797628e+00  1.6920829139527398e+00  1.7377154828160735e+00  1.8166962204559707e+00  1.9740593719528574e+00  1.9321355533396536e+00  2.1899832805237418e+00  2.6826716094237613e+00  8.4325845106699748e-01  9.5697451383389365e-01  9.3639754337025027e-01  1.0734544233132697e+00  1.1412923603928335e+00  1.1849387454984339e+00  1.2326749995577537e+00  1.2108951297206207e+00  1.2727893903245613e+00  1.2633673819316813e+00  1.2933823925003434e+00  1.3007081292114659e+00  1.3253464719755503e+00  1.3587384696320572e+00  1.3975931753066166e+00  1.4468987030963145e+00  1.5171037972100183e+00  1.5760140537157670e+00  1.5986023376225822e+00  1.6418536253625269e+00  1.6867589339722888e+00  1.8587907167399367e+00  2.0124392057299128e+00  2.7591113653748214e+00  1.0361835813110296e+00  1.1420786336038746e+00  1.1609856146652995e+00  1.2303849469464019e+00  1.2174509729260543e+00  1.2625930599950639e+00  1.2591343807285427e+00  1.3662386594234708e+00  1.3626694242180490e+00  1.4712420540525635e+00  1.5559526334853822e+00  2.0990643784133454e+00  2.2878592851965034e+00  9.6499754036196805e-01  9.6857511313861022e-01  1.1340353338473486e+00  1.1860152003798827e+00  1.1906729205213289e+00  1.2297866470762562e+00  1.1124201506323759e+00  1.1139651485704807e+00  1.1696107578874506e+00  1.1744477065041086e+00  1.3259624133531569e+00  1.3140219578595469e+00  9.2569470979085544e-01  1.0119463101446713e+00  1.0919002075138373e+00  1.2179930285946341e+00  1.2504270545757581e+00  1.2906746638484068e+00  8.4914110703738832e-01  1.0540522249169617e+00  1.0824638236699680e+00  1.2836803837965771e+00  1.2678744661544943e+00  8.8435533316987835e-01  1.0407243236600554e+00  1.0792519189701832e+00  1.1364546714231076e+00  1.1454968453336087e+00  1.2065155599886486e+00  1.2388982371141906e+00  1.1181809408036663e+00  9.0150430814244997e-01  1.0422749550214454e+00  1.0972923448814857e+00  1.1274888779640238e+00  9.9753447122322791e-01  1.1418630740288951e+00  1.1918535689214325e+00  1.2209653882948914e+00  9.9304662878202399e-01  1.0715887924940772e+00  1.1608028967201978e+00  7.3211749194861719e-01  9.5016796177735185e-01  1.0415415890168418e+00  1.1106688189570659e+00  1.1718815167364043e+00  8.3111776147637551e-01  1.0882618586841246e+00  1.1200460721544092e+00  8.5181381891934438e-01  9.9586631551025073e-01  1.0253341560944798e+00  8.8741230609816413e-01  9.4239589018671488e-01  9.8872657298205280e-01  1.0726622765066594e+00  1.0583497371900812e+00  1.0303384575748331e+00  1.0641627736174246e+00  9.6078833555219556e-01  1.0145307152444980e+00  9.4256297571061254e-01  8.8951514412992250e-01  8.9894760401882945e-01  9.2058745031442524e-01  1.0113552720499130e+00  9.9844745471883589e-01  6.8498047019088470e-01  8.3429269522983218e-01  9.3169253789867035e-01  7.7426811651417182e-01  9.5070729758910588e-01  9.6738449213613276e-01  7.6846319997629775e-01  7.9586198848564338e-01  8.2871544452552948e-01  8.5465620931757846e-01  9.6094900597444499e-01  7.6908936980157783e-01  8.8376814461444797e-01  8.3623951893474524e-01  9.1323015433057442e-01  8.8989682121885472e-01  7.8485405178640644e-01  8.1164932525699152e-01  6.0176902357417505e-01  7.0697785309726258e-01  7.6516663771573779e-01  8.4482069477774158e-01  6.6443146008265397e-01  7.3277958661527665e-01  7.0841249547168439e-01  8.5771448162124952e-01  6.9504218712953481e-01  6.2289845397226118e-01  5.3230314441189819e-01  6.9436924206872808e-01  7.6739961004959156e-01  6.3242809949906487e-01  8.1177812893151924e-01  5.5043954826194708e-01  7.3335155467048174e-01  6.8036444398797524e-01  6.1479662171163030e-01  6.1178201610504424e-01  5.2572250562525535e-01  7.7603409517022470e-01  4.6449605913257141e-01  5.1739137498336296e-01  5.8122673585522755e-01  6.4620596157037824e-01  3.7588194430831656e-01  6.2767903880224907e-01  7.2525112711447826e-01  5.4731913276358479e-01  5.8292117972465740e-01  6.8513800847846695e-01  4.2629897742310441e-01  4.6667625593693884e-01  4.1115243557050024e-01  4.1506443143679578e-01  5.1481893973030524e-01  2.9186973924123860e-01  4.3359403572479494e-01  4.6620717496487574e-01  5.2580405453026269e-01  3.7984203848529702e-01  3.1737552651995793e-01  3.3322948145264836e-01  2.9110275137944036e-01  1.5432724366748879e-01  3.3047481527963735e-01  2.1186481296974138e-01  1.5572475680006392e-01  1.7219442776271884e-01  3.0354983885599435e-01  2.0380132996243150e-01  1.6113632496784658e-01  1.8068311541722151e-01  -1.0685932150078967e-16  1.1083052455335297e-18  -1.0235562970333098e-16  -4.5103325058750571e-17  </DataArray> 
</PointData> 
</Piece>
</UnstructuredGrid>
</VTKFile>