<?xml version="1.0"?>
<VTKFile type="UnstructuredGrid"  version="0.1"  >
<UnstructuredGrid>
<Piece  NumberOfPoints="465" NumberOfCells="860">
<Points>
<DataArray  type="Float64"  NumberOfComponents="3"  format="ascii">1 -1 0  1 0 0  0 0 0  0 1 0  -1 1 0  -1 -1 0  -1 -0.76153 0  -1 0.76668 0  -1 0.36947 0  -1 -0.55255 0  -1 -0.1746 0  -1 0.55915 0  -1 -0.36117 0  -1 0.008808699999999999 0  -1 0.18688 0  -0.86829 -0.28179 0  -0.85026 0.4621 0  -0.82751 -0.82415 0  -0.86388 0.14451 0  -0.74263 -0.35726 0  -0.75872 -0.20401 0  -0.84818 0.015616 0  -0.8696700000000001 -0.11798 0  -0.83883 0.63862 0  -0.86281 0.29908 0  -0.76366 1 0  -0.73428 0.09231200000000001 0  -0.74012 -0.059552 0  -0.85232 -0.45355 0  -0.6561900000000001 -0.14623 0  -0.74565 0.23534 0  -0.60542 0.43489 0  -0.72683 0.37435 0  -0.8224399999999999 0.82606 0  -0.71 0.52734 0  -0.84019 -0.63006 0  -0.65599 0.016625 0  -0.70933 -0.51632 0  -0.62013 0.30323 0  -0.6066 -0.06517100000000001 0  -0.65203 0.18422 0  -0.681 0.68724 0  -0.76353 -1 0  -0.55787 -0.18324 0  -0.59873 0.09575400000000001 0  -0.5101599999999999 0.37039 0  -0.6903 -0.6856100000000001 0  -0.64676 -0.26266 0  -0.5390200000000001 0.015993 0  -0.55431 0.1973 0  -0.63636 -0.84409 0  -0.55488 1 0  -0.62296 -0.38318 0  -0.5795 -0.48465 0  -0.46389 -0.13077 0  -0.57377 0.57442 0  -0.54121 -0.29518 0  -0.5048899999999999 0.11357 0  -0.51115 0.27977 0  -0.52036 -0.73282 0  -0.45912 0.20093 0  -0.43668 0.60386 0  -0.63114 0.84126 0  -0.52895 -0.088936 0  -0.46458 -0.035372 0  -0.45348 0.047608 0  -0.44595 -0.29976 0  -0.3946 -0.0049555 0  -0.37902 0.066276 0  -0.42171 0.12772 0  -0.48635 0.484 0  -0.51884 0.71091 0  -0.40176 -0.081607 0  -0.5704 -0.60508 0  -0.47023 -0.21475 0  -0.38343 0.20617 0  -0.39466 -0.16194 0  -0.34313 0.33595 0  -0.41319 0.3955 0  -0.31794 0.42438 0  -0.33224 0.01658 0  -0.41978 0.29262 0  -0.37554 0.50129 0  -0.36045 0.71904 0  -0.35142 0.13455 0  -0.45327 0.84532 0  -0.49613 -0.40113 0  -0.38353 -0.2369 0  -0.33996 -0.11627 0  -0.28759 -0.023754 0  -0.26411 0.36236 0  -0.26333 0.50163 0  -0.31232 0.59687 0  -0.38252 -0.46112 0  -0.35003 -0.30935 0  -0.34141 -0.048429 0  -0.31497 0.077347 0  -0.42259 -0.6339900000000001 0  -0.4042 -0.37593 0  -0.32614 -0.18546 0  -0.31158 0.18893 0  -0.2643 0.23237 0  -0.33379 0.26037 0  -0.29429 0.86698 0  -0.35757 -0.74682 0  -0.30363 -0.2516 0  -0.28641 0.1301 0  -0.24743 0.17488 0  -0.2706 -0.32238 0  -0.28117 -0.14148 0  -0.2896 -0.081539 0  -0.27729 0.030835 0  -0.25753 0.07974100000000001 0  -0.2187 0.42271 0  -0.4631 -0.52018 0  -0.26141 -0.20167 0  -0.24406 -0.054274 0  -0.26508 0.2966 0  -0.36872 1 0  -0.31271 -0.39049 0  -0.24051 -0.10559 0  -0.20588 0.27115 0  -0.22781 0.76478 0  -0.22655 -0.15865 0  -0.23959 -0.0054873 0  -0.19617 0.1603 0  -0.20438 0.21613 0  -0.44753 -0.86288 0  -0.20297 -0.033746 0  -0.19671 0.0066559 0  -0.15304 0.29116 0  -0.55146 -1 0  -0.20373 -0.21298 0  -0.18548 0.044243 0  -0.2315 0.12279 0  -0.19294 0.34196 0  -0.22787 0.039781 0  -0.22155 0.65639 0  -0.20784 -0.74869 0  -0.33749 -0.55538 0  -0.20259 -0.07686900000000001 0  -0.15895 0.013598 0  -0.19918 -0.32634 0  -0.23541 -0.26337 0  -0.17378 -0.26713 0  -0.16171 0.19168 0  -0.27744 -0.64836 0  -0.17741 -0.16991 0  -0.16586 -0.019065 0  -0.18371 0.11821 0  -0.11851 0.19292 0  -0.18489 1 0  -0.15083 -0.21689 0  -0.10713 0.73628 0  -0.1541 -0.13285 0  -0.19505 -0.12224 0  -0.16768 -0.054601 0  -0.13263 -0.0052819 0  -0.14988 0.043484 0  -0.16353 0.077487 0  -0.20661 0.08078100000000001 0  -0.15753 0.47532 0  -0.354 -1 0  -0.27639 -0.47324 0  -0.2292 -0.39578 0  -0.13244 -0.17437 0  -0.11725 -0.13752 0  -0.16377 -0.0925 0  -0.1247 0.023649 0  -0.089932 0.22696 0  -0.13921 0.3951 0  -0.08427 0.52773 0  -0.18859 0.55966 0  -0.14835 0.1118 0  -0.14627 0.15122 0  -0.14822 -0.6341599999999999 0  -0.21974 -0.55467 0  -0.18052 -0.46797 0  -0.12527 0.08741699999999999 0  -0.10279 0.15697 0  -0.14623 0.23806 0  -0.12535 0.87459 0  -0.11471 -0.53745 0  -0.09808600000000001 -0.44733 0  -0.15313 -0.38807 0  -0.13408 -0.3195 0  -0.1284 -0.10194 0  -0.13474 -0.068077 0  -0.092762 0.025239 0  -0.12758 0.059938 0  -0.096154 0.069378 0  -0.11526 0.12326 0  -0.1147 0.33407 0  -0.11762 -0.26125 0  -0.10207 -0.21196 0  -0.10422 -0.077228 0  -0.13623 -0.035868 0  -0.10859 -0.022144 0  -0.10445 0.0039808 0  -0.078412 0.008654 0  -0.09520199999999999 0.095716 0  -0.07374600000000001 0.18613 0  -0.16859 -1 0  -0.027796 -0.41519 0  -0.10849 -0.049117 0  -0.085137 -0.036053 0  -0.085024 -0.012577 0  -0.06892 0.09733700000000001 0  -0.09830800000000001 0.27351 0  -0.074293 0.44202 0  -0.091167 -0.17118 0  -0.062849 -0.11489 0  -0.084415 -0.13519 0  -0.074923 -0.08688700000000001 0  -0.065385 -0.025153 0  -0.069428 0.030482 0  -0.10645 0.043697 0  -0.05088 0.11991 0  -0.08198999999999999 0.12602 0  -0.06244 0.15162 0  -0.041118 0.21133 0  -1.1096e-11 0.8301500000000001 0  -0.27235 -0.86695 0  -0.095842 -0.10609 0  -0.058074 -0.06837699999999999 0  -0.08218300000000001 -0.060464 0  -0.049664 0.034355 0  -0.080244 0.04916 0  -0.06887600000000001 0.07307900000000001 0  -0.04622 0.25487 0  -0.061995 0.3714 0  -4.8162e-12 0.40511 0  -0.10255 0.62409 0  -0.076462 -0.30222 0  -0.059003 -0.19539 0  -0.04819 -0.09273099999999999 0  -0.062608 -0.046037 0  -0.046405 -0.033529 0  -0.06382 -0.0058467 0  -0.057772 0.052029 0  -0.036472 0.05142 0  -0.044955 0.091431 0  -0.033532 0.17304 0  -0.053384 0.30841 0  -0.04152 -0.053145 0  -0.047178 -0.016845 0  -0.04758 0.00063286 0  -0.05855 0.014497 0  -0.020581 0.06537 0  -0.043389 0.069954 0  -4.0867e-12 0.33716 0  -5.4205e-12 0.48437 0  -0.035379 -0.07223599999999999 0  -0.029868 -0.040334 0  -0.029921 -0.024285 0  -0.033512 -0.0094497 0  -0.034427 0.0063142 0  -0.04204 0.019309 0  -0.027095 0.02218 0  -0.031573 0.035727 0  -0.024367 0.10962 0  7.0032e-13 0.078151 0  -0.11268 -0.8654500000000001 0  0.018168 -0.70244 0  -0.026955 -0.2805 0  -0.030768 -0.1595 0  -0.057728 -0.1521 0  -0.024984 -0.096633 0  -0.019486 -0.05594 0  -0.015858 -0.036984 0  -0.0013017 -0.031866 0  -0.014186 -0.023448 0  -0.019 -0.012927 0  -0.022104 -0.0015089 0  -0.01113 0.0089339 0  -0.022025 0.010491 0  -0.015012 0.033972 0  -0.017084 0.048463 0  -1.9702e-13 0.061402 0  -0.021952 0.084857 0  -0.028579 0.13954 0  -1.969e-12 0.12454 0  -2.8942e-12 0.23095 0  -6.4031e-12 0.57955 0  0.011601 -1 0  -0.084701 -0.7281300000000001 0  -0.032934 -0.6032 0  -0.08557099999999999 -0.369 0  -0.068244 -0.24509 0  -0.011166 -0.13757 0  -0.036427 -0.12287 0  -0.0061307 -0.11041 0  -0.015731 -0.07556599999999999 0  0.0013186 -0.06541 0  0.011878 -0.036509 0  -0.0032779 -0.047496 0  0.010134 -0.021541 0  -0.0019702 -0.019074 0  -0.0066846 -0.0098339 0  -0.010965 -0.001088 0  -1.2303e-13 0.010869 0  -0.012802 0.021038 0  -1.6443e-13 0.0263 0  -1.5969e-13 0.036108 0  -1.848e-13 0.047407 0  9.315099999999999e-13 0.098994 0  -2.3819e-12 0.15477 0  -8.802299999999999e-12 0.69077 0  -0.027386 -0.34203 0  -0.020561 -0.18924 0  0.016358 -0.12911 0  0.0018237 -0.08748499999999999 0  0.021703 -0.07584100000000001 0  0.013666 -0.053195 0  0.027573 -0.039464 0  0.0053816 -0.0091854 0  0.011672 -1.9089e-13 0  -1.0617e-13 0.0047585 0  -1.3924e-13 0.017714 0  -2.5076e-12 0.19025 0  -3.4115e-12 0.27959 0  -0.029188 -0.50148 0  0.031342 -0.37087 0  0.0084899 -0.16423 0  0.021022 -0.10175 0  0.045988 -0.06804499999999999 0  0.02974 -0.057659 0  -0.026297 -0.22964 0  0.040241 -0.14727 0  0.042841 -0.090198 0  0.065275 -0.054934 0  0.018114 -0.01079 0  0.025556 5.8211e-13 0  0.042083 -0.44519 0  0.022198 -0.30656 0  0.013473 -0.20531 0  0.045623 -0.045816 0  0.040235 -0.02764 0  0.023532 -0.024219 0  0.01624 -0.83727 0  0.016142 -0.25104 0  0.043512 -0.17847 0  0.033264 -0.012623 0  0.042137 6.9807e-13 0  0.053682 -0.53015 0  0.053283 -0.21833 0  0.07197199999999999 -0.14419 0  0.045069 -0.11834 0  0.067507 -0.07985 0  0.059781 -0.032631 0  0.051566 -0.014748 0  0.06768 -0.10725 0  0.09948 -0.38681 0  0.07957 -0.1791 0  0.094143 -0.091019 0  0.08956699999999999 -0.063832 0  0.062956 -0.26787 0  0.09866999999999999 -0.021091 0  0.073211 -0.0174 0  0.061957 8.6079e-13 0  0.09449100000000001 -0.22641 0  0.093815 -0.12193 0  0.08200300000000001 -0.038763 0  0.14418 -0.86468 0  0.079508 -0.32335 0  0.12468 -0.11009 0  0.10863 -0.046335 0  0.085523 1.0177e-12 0  0.085925 -0.61587 0  0.12878 -0.025094 0  0.11322 -2.1038e-12 0  0.12265 -0.45901 0  0.11653 -0.18777 0  0.11447 -0.14923 0  0.17589 -0.27087 0  0.11672 -0.27423 0  0.15445 -0.13317 0  0.11983 -0.076491 0  0.13921 -0.054176 0  0.16518 -0.024749 0  0.14601 -2.9603e-12 0  0.15603 -0.17499 0  0.1551 -0.09073199999999999 0  0.14451 -0.22602 0  0.14364 -0.32824 0  0.19386 -0.21279 0  0.19921 -0.16052 0  0.17098 -0.054624 0  0.1881 -3.0203e-12 0  0.189 -1 0  0.17533 -0.38928 0  0.23415 -3.2973e-12 0  0.21515 -0.45605 0  0.19346 -0.11644 0  0.19532 -0.077942 0  0.12695 -0.73285 0  0.15704 -0.53562 0  0.21347 -0.32117 0  0.24592 -0.1901 0  0.21041 -0.036917 0  0.28586 -0.29994 0  0.24258 -0.13254 0  0.23639 -0.25363 0  0.23507 -0.08257 0  0.26131 -0.043368 0  0.29824 -0.22588 0  0.29685 -0.15742 0  0.29802 -0.86136 0  0.26383 -0.5334100000000001 0  0.2585 -0.37753 0  0.28589 -0.096801 0  0.24863 -0.73925 0  0.19941 -0.6281099999999999 0  0.3595 -0.26671 0  0.28863 -3.9421e-12 0  0.34449 -0.35257 0  0.43169 -0.31342 0  0.37009 -1 0  0.31272 -0.44202 0  0.34663 -0.11496 0  0.32071 -0.62462 0  0.32079 -0.052061 0  0.38756 -0.73087 0  0.3593 -0.18682 0  0.4185 -0.13637 0  0.37684 -0.51723 0  0.41387 -0.41328 0  0.51645 -0.36758 0  0.35235 -4.5342e-12 0  0.46493 -0.8537 0  0.49504 -0.48465 0  0.50374 -0.16095 0  0.43254 -0.22047 0  0.5608300000000001 -1 0  0.47235 -0.074338 0  0.39036 -0.062387 0  0.51874 -0.25905 0  0.51359 -5.8459e-12 0  0.42676 -5.1639e-12 0  0.53871 -0.71202 0  0.6144500000000001 -6.5105e-12 0  0.58816 -0.57186 0  0.61428 -0.43273 0  0.5701000000000001 -0.088213 0  0.72336 -0.51672 0  0.61953 -0.30422 0  0.60492 -0.18935 0  0.45129 -0.60
[...]
<PointData  Scalars="f_57"> 
<DataArray  type="Float64"  Name="f_57"  format="ascii">1.0438973436238632e+00  1.5401320382659864e+00  8.3574023070175443e+00  6.2164789281647870e-02  5.3329409421356655e-01  6.4060323302766575e-01  7.0569544428583841e-01  7.4362711827495609e-01  1.0275817699332661e+00  8.1915339932775921e-01  1.0967870674450804e+00  9.2576947433678536e-01  9.6357606336150736e-01  1.1685837650473736e+00  1.1124536672644996e+00  9.3946760084970138e-01  1.0629182825668833e+00  7.1661369747251225e-01  1.1529559168913055e+00  8.9722415656899202e-01  1.0022363962831966e+00  1.1336189075849494e+00  1.0466970770178712e+00  9.3645361417304274e-01  1.1365105046087636e+00  4.3426482315968784e-01  1.1995188268273913e+00  1.1285478274484688e+00  8.3000777269350912e-01  1.0889027159856615e+00  1.2097002152340697e+00  1.1487417698309503e+00  1.1494452991231729e+00  6.5703832931754125e-01  1.0250126559936643e+00  7.4858688620106029e-01  1.2626688224557250e+00  8.2226753898444394e-01  1.2861127426638839e+00  1.2101211334285948e+00  1.3048963334330481e+00  7.7565808054801355e-01  6.9200810636463017e-01  1.1497635170156049e+00  1.3632234543019452e+00  1.2590913601342082e+00  7.7641443771226393e-01  9.8809522330415600e-01  1.4209435761520230e+00  1.3931352080818020e+00  7.4917706527098249e-01  2.7375858656842406e-01  9.1823739129565296e-01  8.4661814170316507e-01  1.3615247416316145e+00  9.2843456858196849e-01  1.0175186302307677e+00  1.5296294932534773e+00  1.4041541778501994e+00  7.7929596510415367e-01  1.5395404086859026e+00  7.9965199957159494e-01  4.6555341041880532e-01  1.3266552214150293e+00  1.5145950778108113e+00  1.6367171090838248e+00  1.0942813143598933e+00  1.7455447285448675e+00  1.8312251682045628e+00  1.6826700556939860e+00  1.0716853274811533e+00  6.3589740618417823e-01  1.5971138878502558e+00  8.1186753658171651e-01  1.1922894139749145e+00  1.6271788385121466e+00  1.4244957584501694e+00  1.3523755065692631e+00  1.2246751262208329e+00  1.1393044178968061e+00  1.9685657080606740e+00  1.4245155717326670e+00  9.7286973160675283e-01  5.1028309815026407e-01  1.8194276362733770e+00  3.4351274966821566e-01  9.3023412859745258e-01  1.2720318091703229e+00  1.6675187365066937e+00  2.0817007404617516e+00  1.2660817293902531e+00  9.0548708112307708e-01  7.2032744208188282e-01  9.4113615303661236e-01  1.1630424240265698e+00  1.8393626194900592e+00  2.0054596654343961e+00  8.2446623826620202e-01  1.0151864593343238e+00  1.4950554810198997e+00  1.7520238878843695e+00  1.6610661533831621e+00  1.5585447359667908e+00  2.2905596110555085e-01  7.9626267015466401e-01  1.3501988576179611e+00  1.9652939231100939e+00  1.8785306333210043e+00  1.2328965262738201e+00  1.7336172989928695e+00  1.9154620402700593e+00  2.1742683763272681e+00  2.1731945590992234e+00  1.0912003236709982e+00  8.6490700282780519e-01  1.5653782840468984e+00  2.1675252406285415e+00  1.4660007143456166e+00  1.6551335670646741e-01  1.0720834412001470e+00  1.9752968558569988e+00  1.5322562333374179e+00  3.6503388193785491e-01  1.7912265331854205e+00  2.3153837929764469e+00  1.9784577925049356e+00  1.7612584593761360e+00  7.6175998099185549e-01  2.4161397229685146e+00  2.5410459372736742e+00  1.4636050012843966e+00  7.3947116640070654e-01  1.6305017733484382e+00  2.5669420470598028e+00  2.1022241094302325e+00  1.2932117980668889e+00  2.3731734020976147e+00  5.5255854212072875e-01  8.1652399013631460e-01  8.8645637447685632e-01  2.2237400563234226e+00  2.7650607869462216e+00  1.3075751671507041e+00  1.4219453705901739e+00  1.4986083893740230e+00  1.8790693497295419e+00  8.4773806787319295e-01  1.8445202259390341e+00  2.6687426783466033e+00  2.2405435413496133e+00  1.8711948857192775e+00  8.7841771861711201e-02  1.6996491317071833e+00  3.6125713117780489e-01  2.0590135034538726e+00  2.0200034109747187e+00  2.4771168978280782e+00  2.9606579875520445e+00  2.7457273133499855e+00  2.4951675855076956e+00  2.3317706144231773e+00  9.1090090274877711e-01  7.6201039104543966e-01  9.9052486895816005e-01  1.1337958327724407e+00  1.9026728043773324e+00  2.0963519730972346e+00  2.2617947664743996e+00  3.0055595660108456e+00  1.7124991687855839e+00  1.0935924363123355e+00  7.4113042977129262e-01  7.2610194546535434e-01  2.3287005628202944e+00  2.0939356412595420e+00  8.9546329328698104e-01  9.3587779213970446e-01  1.0577610121970775e+00  2.5578902020997210e+00  2.0985187086807602e+00  1.6620973545212236e+00  1.6905470400167935e-01  1.0063078279717368e+00  1.1496007304212381e+00  1.2176767157026072e+00  1.3981418246518826e+00  2.2915809334762924e+00  2.5137288972996257e+00  3.3172333760196144e+00  2.7914343297373287e+00  2.8343960492826312e+00  2.3180721548645238e+00  1.2945064449088335e+00  1.5888316302537153e+00  1.7862039468873832e+00  2.5365214124570201e+00  2.7527616185044743e+00  3.0537655443628191e+00  3.2397804748626067e+00  3.5921816949752374e+00  2.5740431833334347e+00  1.9157376343311412e+00  7.8148156999695839e-01  1.2641586171253052e+00  2.7842599528696952e+00  3.0635555428790373e+00  3.3781198538280339e+00  2.6139055714256632e+00  1.4837945033794049e+00  9.3210896424330891e-01  1.9827491661927605e+00  2.3023788637548352e+00  2.1653983073444727e+00  2.5161722384608969e+00  3.3839184596851335e+00  3.5293129077310605e+00  3.0343706466353604e+00  2.4211320519177955e+00  2.3380530692477262e+00  2.1548444590296358e+00  1.7709915531595450e+00  2.0492949753333953e-01  7.7748825953651468e-01  2.3325521024204399e+00  2.7249412965163367e+00  2.7588980303326371e+00  3.6998502985623820e+00  3.1604745089151822e+00  2.9054806575417662e+00  1.5489240651581648e+00  1.1270970844240147e+00  9.8648832481020943e-01  5.5522589716749937e-01  1.5038026271097136e+00  1.8850234032497246e+00  2.4713058898854392e+00  3.0179037914406179e+00  3.3103898606731557e+00  3.7862293911660436e+00  3.2657374540922453e+00  3.4003047955397694e+00  2.7148465541765789e+00  2.0004509203102034e+00  1.3356768181274168e+00  2.9842754190629814e+00  3.8240316130061855e+00  4.2646502284887831e+00  3.9222993318528867e+00  3.1799935023067945e+00  3.0499771934533038e+00  1.1994524916910043e+00  7.8995916128620158e-01  2.6590242108022659e+00  3.2028672553365642e+00  3.6895390287848286e+00  4.3675263747665163e+00  4.7830215381002761e+00  4.1992394727266946e+00  4.4184525063999098e+00  3.8635118760635256e+00  2.5382495662417019e+00  2.9655198567254946e+00  7.9974965122169361e-01  8.9367219433535805e-01  1.6143402938377105e+00  2.0868664739765150e+00  2.0933990648705252e+00  2.5031811307032958e+00  2.9051475292022713e+00  3.3274334316230729e+00  3.4485113545361079e+00  3.7862163922074905e+00  4.4003510191758295e+00  5.3449087696351265e+00  5.9666572952743602e+00  5.1704316507498138e+00  4.0481238460953382e+00  3.5637444163056311e+00  3.2828145353995377e+00  2.8404697296772885e+00  2.2573228585434455e+00  2.3922817590375529e+00  1.6437259023684450e+00  6.0155318927828094e-01  7.9832217297903130e-01  8.5176075440784305e-01  9.6664691610311559e-01  1.3203714714167261e+00  1.6874871640162306e+00  2.1823781447003539e+00  2.2667433416305349e+00  2.3212853977645338e+00  2.6646523448576591e+00  2.7502801089137128e+00  3.2151890642922583e+00  3.0408451883868159e+00  3.7386973792846900e+00  4.0271849013398144e+00  4.7180107169045113e+00  6.5655529086532516e+00  6.5922746540460784e+00  4.8428866406109288e+00  4.5351159693806693e+00  4.0412781332037637e+00  3.6321043056816027e+00  2.6673163863829981e+00  2.1285380320242457e+00  4.1227916710238011e-01  1.4380364240256482e+00  1.9319576890485104e+00  2.2452933952616605e+00  2.5204604773249306e+00  2.6056057322864050e+00  2.8607592965764872e+00  3.0059741613417343e+00  5.0498745383076322e+00  5.8138688474049784e+00  9.2486332652545737e+00  5.2185071674144448e+00  1.8800714645882168e+00  1.4152536976968877e+00  1.1011694356942008e+00  1.4047900304062231e+00  2.0519509755300294e+00  2.3812275431098162e+00  2.5793760516398225e+00  2.7795633911798174e+00  1.7900808202488674e+00  2.1255321907855276e+00  2.4216587037939674e+00  2.6136880358243237e+00  3.9781700236989570e+00  4.1383133725783363e+00  1.2464177505067635e+00  1.5694061131695198e+00  1.8871539488801621e+00  2.8144967579815394e+00  3.1070556845492470e+00  3.4402107494296361e+00  8.2552622538871001e-01  1.7286668857469152e+00  1.9903880314670288e+00  3.5317188285503236e+00  3.4128101933348867e+00  1.1030886653514052e+00  1.8486448607332264e+00  2.1206600860894889e+00  2.2347387147735627e+00  2.4387189360892938e+00  2.8411543485070587e+00  3.1120090716205544e+00  2.2913878006667696e+00  1.4043740836222656e+00  1.9691298308627208e+00  2.2851661247146118e+00  2.4360570735602947e+00  1.7006665617498653e+00  2.5538418237019673e+00  2.7982019254371311e+00  2.9703557947442008e+00  1.8299250339017716e+00  2.1700344411389425e+00  2.6126600948123473e+00  8.5228344688026070e-01  1.5512999630771722e+00  2.1817458635477815e+00  2.4275911851529486e+00  2.6586759533121871e+00  9.9658476873806501e-01  2.3634381578948123e+00  2.4172257990024089e+00  1.2607372156497156e+00  1.9287013721387756e+00  2.0445531855607202e+00  1.7043449648776872e+00  1.6920939032382953e+00  2.0396159359314399e+00  2.2803482697041280e+00  2.3012680304919200e+00  2.1626778357479233e+00  2.1980373170689376e+00  1.9518520508967889e+00  2.1514563564810985e+00  1.8177836403939955e+00  1.5592550946916521e+00  1.8378234345196329e+00  1.9555639813416386e+00  2.1584632597590225e+00  2.0752921660357710e+00  8.3489820635272660e-01  1.4253295289219330e+00  1.9221591176872239e+00  1.2950082404095709e+00  2.0538855657276658e+00  2.0979250481771374e+00  9.1090084358763868e-01  1.1354520731336091e+00  1.5849935156303780e+00  1.8554224650542386e+00  2.0599509689614011e+00  1.6271464718066688e+00  1.9468473536979221e+00  1.7331950391489857e+00  1.9973702332161729e+00  1.9520081675238909e+00  1.7669035418875512e+00  1.8704511116095932e+00  8.9404381107832021e-01  1.1692330913700102e+00  1.4634015389953707e+00  1.9275072695384869e+00  9.3917573556617573e-01  1.0240688327140548e+00  1.6756091421919774e+00  1.8256055607373207e+00  1.5143159304519116e+00  1.5776217038441482e+00  9.0030231051050769e-01  1.3371196132937604e+00  1.8577698690340052e+00  1.0565366574868815e+00  1.8678936462993534e+00  9.7364238245981471e-01  1.7948701780138643e+00  1.7996316666063010e+00  1.2102997097874235e+00  1.3929940100049996e+00  1.4679387795153340e+00  1.7449534263956872e+00  9.3629381829048808e-01  1.2647646036167906e+00  1.7465333744034426e+00  1.7218099080182032e+00  9.7666740719039324e-01  1.7561459579490746e+00  1.8044674054854279e+00  1.6442296601056499e+00  1.6453126644259213e+00  1.6863595589425981e+00  1.0037729133153890e+00  1.6263609101631298e+00  1.1368634627516065e+00  1.3469727961071933e+00  1.7208851871606714e+00  1.2063431356705827e+00  1.5621383433088440e+00  1.6970400799817900e+00  1.0928989645945495e+00  1.6882143131136742e+00  9.6650592568574067e-01  1.6044057061871684e+00  1.0248303340135325e+00  1.0777487692632379e+00  1.6340176630913574e+00  1.6938845279242958e+00  9.8627506585843805e-01  1.5974835467986817e+00  1.4560626226161446e+00  1.0495999617902727e+00  1.3324965163077029e+00  1.6250422122291350e+00  1.1476595894608317e+00  1.4312157644871384e+00  1.5981241518064071e+00  9.7756757059819499e-01  </DataArray> 
</PointData> 
</Piece>
</UnstructuredGrid>
</VTKFile>